Generated by Yaff

                1096 atoms
                1072 bonds
                   0 angles 
                   0 dihedrals
                   0 impropers

                  12 atom types
                   1 bond types
                   0 angle types
                   0 dihedral types
                   0 improper types

    0.000000000000000000000000    40.304078984272457830684289 xlo xhi
    0.000000000000000000000000    40.304078984272457830684289 ylo yhi
    0.000000000000000000000000    40.304078984272457830684289 zlo zhi
    0.000000000000002467913066     0.000000000000002467913066     0.000000000000002467913066 xy xz yz
Atoms

    1   1   1     2.361609473800000191801018    35.483387616639362249770784    20.152039492136228915342144    20.152039492136228915342144
    2   1   1     2.361609473799999747711809    35.483387616639362249770784     0.000000000000000000000000     0.000000000000000000000000
    3   1   1     2.361609473799999747711809    15.331348124503119123573924    20.152039492136228915342144     0.000000000000000000000000
    4   1   1     2.361609473799999747711809    15.331348124503119123573924     0.000000000000000000000000    20.152039492136228915342144
    5   1   1     2.361609473799999747711809     4.809353010829586771990307    20.152039492136228915342144    20.152039492136228915342144
    6   1   1     2.361609473799999747711809     4.809353010829586771990307     0.000000000000000000000000     0.000000000000000000000000
    7   1   1     2.361609473799999747711809    24.961392502965818351867711    20.152039492136228915342144     0.000000000000000000000000
    8   1   1     2.361609473800000191801018    24.961392502965818351867711     0.000000000000000000000000    20.152039492136228915342144
    9   1   1     2.361609473799999747711809    20.146370313734468737720817    35.489056795041122427392111    20.152039492136228915342144
   10   1   1     2.361609473800000191801018    20.146370313734468737720817    15.337017302904879301195251     0.000000000000000000000000
   11   1   1     2.361609473799999747711809    40.298409805870697653062962    35.489056795041122427392111     0.000000000000000000000000
   12   1   1     2.361609473799999747711809    40.298409805870697653062962    15.337017302904879301195251    20.152039492136228915342144
   13   1   1     2.361609473799999747711809    20.146370313734468737720817    20.152039492136228915342144    35.489056795041122427392111
   14   1   1     2.361609473799999747711809    20.146370313734468737720817     0.000000000000000000000000    15.337017302904879301195251
   15   1   1     2.361609473800000191801018    40.298409805870697653062962    20.152039492136228915342144    15.337017302904879301195251
   16   1   1     2.361609473799999747711809    40.298409805870697653062962     0.000000000000000000000000    35.489056795041122427392111
   17   1   1     2.361609473800000191801018    20.146370313734468737720817     4.815022189231351390503733    20.152039492136228915342144
   18   1   1     2.361609473799999747711809    20.146370313734468737720817    24.967061681367578529489037     0.000000000000000000000000
   19   1   1     2.361609473800000191801018    40.298409805870697653062962     4.815022189231351390503733     0.000000000000000000000000
   20   1   1     2.361609473800000191801018    40.298409805870697653062962    24.967061681367578529489037    20.152039492136228915342144
   21   1   1     2.361609473799999747711809    20.146370313734468737720817    20.152039492136228915342144     4.815022189231351390503733
   22   1   1     2.361609473799999747711809    20.146370313734468737720817     0.000000000000000000000000    24.967061681367578529489037
   23   1   1     2.361609473799999747711809    40.298409805870697653062962    20.152039492136228915342144    24.967061681367578529489037
   24   1   1     2.361609473800000191801018    40.298409805870697653062962     0.000000000000000000000000     4.815022189231351390503733
   25   1   2    -1.090978155900000023947882    22.311996463208220831120343    22.317665641609991666882706    38.138452834798712842712121
   26   1   2    -1.090978155900000023947882    22.311996463208220831120343     2.165626149473755202023995    17.986413342662480374656297
   27   1   2    -1.090978155900000023947882     2.159956971071991027599779    22.317665641609991666882706    17.986413342662480374656297
   28   1   2    -1.090978155900000023947882     2.159956971071991027599779     2.165626149473755202023995    38.138452834798712842712121
   29   1   2    -1.090978155900000023947882    38.132783656396952665090794    38.138452834798712842712121    38.138452834798712842712121
   30   1   2    -1.090978155900000023947882    38.132783656396952665090794    17.986413342662480374656297    17.986413342662480374656297
   31   1   2    -1.090978155900000023947882    17.980744164260709538893934    38.138452834798712842712121    17.986413342662480374656297
   32   1   2    -1.090978155900000023947882    17.980744164260709538893934    17.986413342662480374656297    38.138452834798712842712121
   33   1   2    -1.090978155900000023947882    22.311996463208220831120343    38.138452834798712842712121    22.317665641609991666882706
   34   1   2    -1.090978155900000023947882    22.311996463208220831120343    17.986413342662480374656297     2.165626149473755202023995
   35   1   2    -1.090978155900000023947882     2.159956971071991027599779    38.138452834798712842712121     2.165626149473755202023995
   36   1   2    -1.090978155900000023947882     2.159956971071991027599779    17.986413342662480374656297    22.317665641609991666882706
   37   1   2    -1.090978155900000023947882    38.132783656396952665090794    22.317665641609991666882706    22.317665641609991666882706
   38   1   2    -1.090978155900000023947882    38.132783656396952665090794     2.165626149473755202023995     2.165626149473755202023995
   39   1   2    -1.090978155900000023947882    17.980744164260709538893934    22.317665641609991666882706     2.165626149473755202023995
   40   1   2    -1.090978155900000023947882    17.980744164260709538893934     2.165626149473755202023995    22.317665641609991666882706
   41   1   3    -1.050929612499999832309072    17.793661277002509990552426    17.799330455404270168173753     2.352709036731959191257602
   42   1   3    -1.050929612499999832309072    17.793661277002509990552426    37.951369947540513294370612    22.504748528868191215224215
   43   1   3    -1.050929612499999832309072    37.945700769138738905894570    17.799330455404270168173753    22.504748528868191215224215
   44   1   3    -1.050929612499999832309072    37.945700769138738905894570    37.951369947540513294370612     2.352709036731959191257602
   45   1   3    -1.050929612500000054353677     2.347039858330195016833386     2.352709036731959191257602     2.352709036731959191257602
   46   1   3    -1.050929612500000054353677     2.347039858330195016833386    22.504748528868191215224215    22.504748528868191215224215
   47   1   3    -1.050929612500000054353677    22.499079350466431037602888     2.352709036731959191257602    22.504748528868191215224215
   48   1   3    -1.050929612500000054353677    22.499079350466431037602888    22.504748528868191215224215     2.352709036731959191257602
   49   1   3    -1.050929612500000054353677    17.793661277002509990552426     2.352709036731959191257602    17.799330455404270168173753
   50   1   3    -1.050929612500000054353677    17.793661277002509990552426    22.504748528868191215224215    37.951369947540513294370612
   51   1   3    -1.050929612500000054353677    37.945700769138738905894570     2.352709036731959191257602    37.951369947540513294370612
   52   1   3    -1.050929612500000054353677    37.945700769138738905894570    22.504748528868191215224215    17.799330455404270168173753
   53   1   3    -1.050929612500000054353677     2.347039858330195016833386    17.799330455404270168173753    17.799330455404270168173753
   54   1   3    -1.050929612500000054353677     2.347039858330195016833386    37.951369947540513294370612    37.951369947540513294370612
   55   1   3    -1.050929612500000054353677    22.499079350466431037602888    17.799330455404270168173753    37.951369947540513294370612
   56   1   3    -1.050929612500000054353677    22.499079350466431037602888    37.951369947540513294370612    17.799330455404270168173753
   57   1   4    -0.682541979300000045682850    16.293218726669039142507245    33.497285449888110520078044    20.142590861466629803544492
   58   1   4    -0.682541979300000045682850    16.293218726669039142507245    13.345245957751879828379060    40.294630353602862271600316
   59   1   4    -0.682541979300000045682850    36.445258218805271610563068    33.497285449888110520078044    40.294630353602862271600316
   60   1   4    -0.682541979300000045682850    36.445258218805271610563068    13.345245957751879828379060    20.142590861466629803544492
   61   1   4    -0.682541979300000045682850    23.999521900799898332934390     6.806793534384349975141504    20.142590861466629803544492
   62   1   4    -0.682541979300000045682850    23.999521900799898332934390    26.958833026520579778662068    40.294630353602862271600316
   63   1   4    -0.682541979300000045682850     3.847482408663668973503036     6.806793534384349975141504    40.294630353602862271600316
   64   1   4    -0.682541979300000045682850     3.847482408663668973503036    26.958833026520579778662068    20.142590861466629803544492
   65   1   4    -0.682541979300000045682850    16.293218726669039142507245     6.806793534384349975141504    20.161488122805838685280833
   66   1   4    -0.682541979300000045682850    16.293218726669039142507245    26.958833026520579778662068     0.009448630669606260593096
   67   1   4    -0.682541979300000045682850    36.445258218805271610563068     6.806793534384349975141504     0.009448630669606260593096
   68   1   4    -0.682541979300000045682850    36.445258218805271610563068    26.958833026520579778662068    20.161488122805838685280833
   69   1   4    -0.682541979300000045682850    23.999521900799898332934390    33.497285449888110520078044    20.161488122805838685280833
   70   1   4    -0.682541979300000045682850    23.999521900799898332934390    13.345245957751879828379060     0.009448630669606260593096
   71   1   4    -0.682541979300000045682850     3.847482408663668973503036    33.497285449888110520078044     0.009448630669606260593096
   72   1   4    -0.682541979300000045682850     3.847482408663668973503036    13.345245957751879828379060    20.161488122805838685280833
   73   1   4    -0.682541979300000045682850    20.136921683064858967782129    16.298887905070799320128572    33.497285449888110520078044
   74   1   4    -0.682541979300000045682850    20.136921683064858967782129    36.450927397207031788184395    13.345245957751879828379060
   75   1   4    -0.682541979300000045682850    40.288961175201087883124274    16.298887905070799320128572    13.345245957751879828379060
   76   1   4    -0.682541979300000045682850    40.288961175201087883124274    36.450927397207031788184395    33.497285449888110520078044
   77   1   4    -0.682541979300000045682850    33.491616271486350342456717    20.142590861466629803544492    16.298887905070799320128572
   78   1   4    -0.682541979300000045682850    33.491616271486350342456717    40.294630353602862271600316    36.450927397207031788184395
   79   1   4    -0.682541979300000045682850    13.339576779350119650757733    20.142590861466629803544492    36.450927397207031788184395
   80   1   4    -0.682541979300000045682850    13.339576779350119650757733    40.294630353602862271600316    16.298887905070799320128572
   81   1   4    -0.682541979300000045682850    20.155818944404071402232148    24.005191079201669168696753    33.497285449888110520078044
   82   1   4    -0.682541979300000045682850    20.155818944404071402232148     3.853151587065433147927251    13.345245957751879828379060
   83   1   4    -0.682541979300000045682850     0.003779452267842503803558    24.005191079201669168696753    13.345245957751879828379060
   84   1   4    -0.682541979300000045682850     0.003779452267842503803558     3.853151587065433147927251    33.497285449888110520078044
   85   1   4    -0.682541979300000045682850     6.801124355982587132984918    20.142590861466629803544492    24.005191079201669168696753
   86   1   4    -0.682541979300000045682850     6.801124355982587132984918    40.294630353602862271600316     3.853151587065433147927251
   87   1   4    -0.682541979300000045682850    26.953163848118819601040741    20.142590861466629803544492     3.853151587065433147927251
   88   1   4    -0.682541979300000045682850    26.953163848118819601040741    40.294630353602862271600316    24.005191079201669168696753
   89   1   4    -0.682541979300000045682850    20.136921683064858967782129    24.005191079201669168696753     6.806793534384349975141504
   90   1   4    -0.682541979300000045682850    20.136921683064858967782129     3.853151587065433147927251    26.958833026520579778662068
   91   1   4    -0.682541979300000045682850    40.288961175201087883124274    24.005191079201669168696753    26.958833026520579778662068
   92   1   4    -0.682541979300000045682850    40.288961175201087883124274     3.853151587065433147927251     6.806793534384349975141504
   93   1   4    -0.682541979300000045682850     6.801124355982587132984918    20.161488122805838685280833    16.298887905070799320128572
   94   1   4    -0.682541979300000045682850     6.801124355982587132984918     0.009448630669606260593096    36.450927397207031788184395
   95   1   4    -0.682541979300000045682850    26.953163848118819601040741    20.161488122805838685280833    36.450927397207031788184395
   96   1   4    -0.682541979300000045682850    26.953163848118819601040741     0.009448630669606260593096    16.298887905070799320128572
   97   1   4    -0.682541979300000045682850    20.155818944404071402232148    16.298887905070799320128572     6.806793534384349975141504
   98   1   4    -0.682541979300000045682850    20.155818944404071402232148    36.450927397207031788184395    26.958833026520579778662068
   99   1   4    -0.682541979300000045682850     0.003779452267842503803558    16.298887905070799320128572    26.958833026520579778662068
  100   1   4    -0.682541979300000045682850     0.003779452267842503803558    36.450927397207031788184395     6.806793534384349975141504
  101   1   4    -0.682541979300000045682850    33.491616271486350342456717    20.161488122805838685280833    24.005191079201669168696753
  102   1   4    -0.682541979300000045682850    33.491616271486350342456717     0.009448630669606260593096     3.853151587065433147927251
  103   1   4    -0.682541979300000045682850    13.339576779350119650757733    20.161488122805838685280833     3.853151587065433147927251
  104   1   4    -0.682541979300000045682850    13.339576779350119650757733     0.009448630669606260593096    24.005191079201669168696753
  105   1   4    -0.682541979300000045682850    33.491616271486350342456717    16.298887905070799320128572    20.142590861466629803544492
  106   1   4    -0.682541979300000045682850    33.491616271486350342456717    36.450927397207031788184395    40.294630353602862271600316
  107   1   4    -0.682541979300000045682850    13.339576779350119650757733    16.298887905070799320128572    40.294630353602862271600316
  108   1   4    -0.682541979300000045682850    13.339576779350119650757733    36.450927397207031788184395    20.142590861466629803544492
  109   1   4    -0.682541979300000045682850     6.801124355982587132984918    24.005191079201669168696753    20.142590861466629803544492
  110   1   4    -0.682541979300000045682850     6.801124355982587132984918     3.853151587065433147927251    40.294630353602862271600316
  111   1   4    -0.682541979300000045682850    26.953163848118819601040741    24.005191079201669168696753    40.294630353602862271600316
  112   1   4    -0.682541979300000045682850    26.953163848118819601040741     3.853151587065433147927251    20.142590861466629803544492
  113   1   4    -0.682541979300000045682850     6.801124355982587132984918    16.298887905070799320128572    20.161488122805838685280833
  114   1   4    -0.682541979300000045682850     6.801124355982587132984918    36.450927397207031788184395     0.009448630669606260593096
  115   1   4    -0.682541979300000045682850    26.953163848118819601040741    16.298887905070799320128572     0.009448630669606260593096
  116   1   4    -0.682541979300000045682850    26.953163848118819601040741    36.450927397207031788184395    20.161488122805838685280833
  117   1   4    -0.682541979300000045682850    33.491616271486350342456717    24.005191079201669168696753    20.161488122805838685280833
  118   1   4    -0.682541979300000045682850    33.491616271486350342456717     3.853151587065433147927251     0.009448630669606260593096
  119   1   4    -0.682541979300000045682850    13.339576779350119650757733    24.005191079201669168696753     0.009448630669606260593096
  120   1   4    -0.682541979300000045682850    13.339576779350119650757733     3.853151587065433147927251    20.161488122805838685280833
  121   1   4    -0.682541979300000045682850    16.293218726669039142507245    20.142590861466629803544492    33.497285449888110520078044
  122   1   4    -0.682541979300000045682850    16.293218726669039142507245    40.294630353602862271600316    13.345245957751879828379060
  123   1   4    -0.682541979300000045682850    36.445258218805271610563068    20.142590861466629803544492    13.345245957751879828379060
  124   1   4    -0.682541979300000045682850    36.445258218805271610563068    40.294630353602862271600316    33.497285449888110520078044
  125   1   4    -0.682541979300000045682850    20.136921683064858967782129    33.497285449888110520078044    16.298887905070799320128572
  126   1   4    -0.682541979300000045682850    20.136921683064858967782129    13.345245957751879828379060    36.450927397207031788184395
  127   1   4    -0.682541979300000045682850    40.288961175201087883124274    33.497285449888110520078044    36.450927397207031788184395
  128   1   4    -0.682541979300000045682850    40.288961175201087883124274    13.345245957751879828379060    16.298887905070799320128572
  129   1   4    -0.682541979300000045682850    23.999521900799898332934390    20.161488122805838685280833    33.497285449888110520078044
  130   1   4    -0.682541979300000045682850    23.999521900799898332934390     0.009448630669606260593096    13.345245957751879828379060
  131   1   4    -0.682541979300000045682850     3.847482408663668973503036    20.161488122805838685280833    13.345245957751879828379060
  132   1   4    -0.682541979300000045682850     3.847482408663668973503036     0.009448630669606260593096    33.497285449888110520078044
  133   1   4    -0.682541979300000045682850    20.136921683064858967782129     6.806793534384349975141504    24.005191079201669168696753
  134   1   4    -0.682541979300000045682850    20.136921683064858967782129    26.958833026520579778662068     3.853151587065433147927251
  135   1   4    -0.682541979300000045682850    40.288961175201087883124274     6.806793534384349975141504     3.853151587065433147927251
  136   1   4    -0.682541979300000045682850    40.288961175201087883124274    26.958833026520579778662068    24.005191079201669168696753
  137   1   4    -0.682541979300000045682850    23.999521900799898332934390    20.142590861466629803544492     6.806793534384349975141504
  138   1   4    -0.682541979300000045682850    23.999521900799898332934390    40.294630353602862271600316    26.958833026520579778662068
  139   1   4    -0.682541979300000045682850     3.847482408663668973503036    20.142590861466629803544492    26.958833026520579778662068
  140   1   4    -0.682541979300000045682850     3.847482408663668973503036    40.294630353602862271600316     6.806793534384349975141504
  141   1   4    -0.682541979300000045682850    20.155818944404071402232148     6.806793534384349975141504    16.298887905070799320128572
  142   1   4    -0.682541979300000045682850    20.155818944404071402232148    26.958833026520579778662068    36.450927397207031788184395
  143   1   4    -0.682541979300000045682850     0.003779452267842503803558     6.806793534384349975141504    36.450927397207031788184395
  144   1   4    -0.682541979300000045682850     0.003779452267842503803558    26.958833026520579778662068    16.298887905070799320128572
  145   1   4    -0.682541979300000045682850    16.293218726669039142507245    20.161488122805838685280833     6.806793534384349975141504
  146   1   4    -0.682541979300000045682850    16.293218726669039142507245     0.009448630669606260593096    26.958833026520579778662068
  147   1   4    -0.682541979300000045682850    36.445258218805271610563068    20.161488122805838685280833    26.958833026520579778662068
  148   1   4    -0.682541979300000045682850    36.445258218805271610563068     0.009448630669606260593096     6.806793534384349975141504
  149   1   4    -0.682541979300000045682850    20.155818944404071402232148    33.497285449888110520078044    24.005191079201669168696753
  150   1   4    -0.682541979300000045682850    20.155818944404071402232148    13.345245957751879828379060     3.853151587065433147927251
  151   1   4    -0.682541979300000045682850     0.003779452267842503803558    33.497285449888110520078044     3.853151587065433147927251
  152   1   4    -0.682541979300000045682850     0.003779452267842503803558    13.345245957751879828379060    24.005191079201669168696753
  153   1   5     0.786054851700000001279989     6.149168839779754591745586    13.997201473954710593261552    20.248415524966219436464598
  154   1   5     0.786054851700000001279989     6.149168839779754591745586    34.149240966090950166744733     0.096376032829983845906519
  155   1   5     0.786054851700000001279989    26.301208331915990612515088    13.997201473954710593261552     0.096376032829983845906519
  156   1   5     0.786054851700000001279989    26.301208331915990612515088    34.149240966090950166744733    20.248415524966219436464598
  157   1   5     0.786054851700000001279989    13.991532295552950415640225     6.154838018181518322080592    20.248415524966219436464598
  158   1   5     0.786054851700000001279989    13.991532295552950415640225    26.306877510317750790136415     0.096376032829983845906519
  159   1   5     0.786054851700000001279989    34.143571787689182883696049     6.154838018181518322080592     0.096376032829983845906519
  160   1   5     0.786054851700000001279989    34.143571787689182883696049    26.306877510317750790136415    20.248415524966219436464598
  161   1   5     0.786054851700000001279989     6.149168839779754591745586     6.154838018181518322080592    40.207702951442492178557586
  162   1   5     0.786054851700000001279989     6.149168839779754591745586    26.306877510317750790136415    20.055663459306249052360727
  163   1   5     0.786054851700000001279989    26.301208331915990612515088     6.154838018181518322080592    20.055663459306249052360727
  164   1   5     0.786054851700000001279989    26.301208331915990612515088    26.306877510317750790136415    40.207702951442492178557586
  165   1   5     0.786054851700000001279989    13.991532295552950415640225    13.997201473954710593261552    40.207702951442492178557586
  166   1   5     0.786054851700000001279989    13.991532295552950415640225    34.149240966090950166744733    20.055663459306249052360727
  167   1   5     0.786054851700000001279989    34.143571787689182883696049    13.997201473954710593261552    20.055663459306249052360727
  168   1   5     0.786054851700000001279989    34.143571787689182883696049    34.149240966090950166744733    40.207702951442492178557586
  169   1   5     0.786054851700000001279989    20.242746346564448600702235     6.154838018181518322080592    13.997201473954710593261552
  170   1   5     0.786054851700000001279989    20.242746346564448600702235    26.306877510317750790136415    34.149240966090950166744733
  171   1   5     0.786054851700000001279989     0.090706854428220101693725     6.154838018181518322080592    34.149240966090950166744733
  172   1   5     0.786054851700000001279989     0.090706854428220101693725    26.306877510317750790136415    13.997201473954710593261552
  173   1   5     0.786054851700000001279989    13.991532295552950415640225    20.248415524966219436464598     6.154838018181518322080592
  174   1   5     0.786054851700000001279989    13.991532295552950415640225     0.096376032829983845906519    26.306877510317750790136415
  175   1   5     0.786054851700000001279989    34.143571787689182883696049    20.248415524966219436464598    26.306877510317750790136415
  176   1   5     0.786054851700000001279989    34.143571787689182883696049     0.096376032829983845906519     6.154838018181518322080592
  177   1   5     0.786054851700000001279989    40.202033773040717790081544    13.997201473954710593261552    13.997201473954710593261552
  178   1   5     0.786054851700000001279989    40.202033773040717790081544    34.149240966090950166744733    34.149240966090950166744733
  179   1   5     0.786054851700000001279989    20.049994280904488874739400    13.997201473954710593261552    34.149240966090950166744733
  180   1   5     0.786054851700000001279989    20.049994280904488874739400    34.149240966090950166744733    13.997201473954710593261552
  181   1   5     0.786054851700000001279989     6.149168839779754591745586    20.248415524966219436464598    13.997201473954710593261552
  182   1   5     0.786054851700000001279989     6.149168839779754591745586     0.096376032829983845906519    34.149240966090950166744733
  183   1   5     0.786054851700000001279989    26.301208331915990612515088    20.248415524966219436464598    34.149240966090950166744733
  184   1   5     0.786054851700000001279989    26.301208331915990612515088     0.096376032829983845906519    13.997201473954710593261552
  185   1   5     0.786054851700000001279989    20.242746346564448600702235    13.997201473954710593261552     6.154838018181518322080592
  186   1   5     0.786054851700000001279989    20.242746346564448600702235    34.149240966090950166744733    26.306877510317750790136415
  187   1   5     0.786054851700000001279989     0.090706854428220101693725    13.997201473954710593261552    26.306877510317750790136415
  188   1   5     0.786054851700000001279989     0.090706854428220101693725    34.149240966090950166744733     6.154838018181518322080592
  189   1   5     0.786054851700000001279989     6.149168839779754591745586    40.207702951442492178557586     6.154838018181518322080592
  190   1   5     0.786054851700000001279989     6.149168839779754591745586    20.055663459306249052360727    26.306877510317750790136415
  191   1   5     0.786054851700000001279989    26.301208331915990612515088    40.207702951442492178557586    26.306877510317750790136415
  192   1   5     0.786054851700000001279989    26.301208331915990612515088    20.055663459306249052360727     6.154838018181518322080592
  193   1   5     0.786054851700000001279989    40.202033773040717790081544     6.154838018181518322080592     6.154838018181518322080592
  194   1   5     0.786054851700000001279989    40.202033773040717790081544    26.306877510317750790136415    26.306877510317750790136415
  195   1   5     0.786054851700000001279989    20.049994280904488874739400     6.154838018181518322080592    26.306877510317750790136415
  196   1   5     0.786054851700000001279989    20.049994280904488874739400    26.306877510317750790136415     6.154838018181518322080592
  197   1   5     0.786054851700000001279989    13.991532295552950415640225    40.207702951442492178557586    13.997201473954710593261552
  198   1   5     0.786054851700000001279989    13.991532295552950415640225    20.055663459306249052360727    34.149240966090950166744733
  199   1   5     0.786054851700000001279989    34.143571787689182883696049    40.207702951442492178557586    34.149240966090950166744733
  200   1   5     0.786054851700000001279989    34.143571787689182883696049    20.055663459306249052360727    13.997201473954710593261552
  201   1   6    -0.134829759900000012429189    40.124555001549950361550145    11.977084236792899574197691    11.977084236792899574197691
  202   1   6    -0.134829759900000012429189    40.124555001549950361550145    32.129123728929123160469317    32.129123728929123160469317
  203   1   6    -0.134829759900000012429189    19.972515509413710788066965    11.977084236792899574197691    32.129123728929123160469317
  204   1   6    -0.134829759900000012429189    19.972515509413710788066965    32.129123728929123160469317    11.977084236792899574197691
  205   1   6    -0.134829759900000012429189    20.320225118055219581947313     8.174955255343336446571811    11.977084236792899574197691
  206   1   6    -0.134829759900000012429189    20.320225118055219581947313    28.326994747479570690984474    32.129123728929123160469317
  207   1   6    -0.134829759900000012429189     0.168185625918991388250134     8.174955255343336446571811    32.129123728929123160469317
  208   1   6    -0.134829759900000012429189     0.168185625918991388250134    28.326994747479570690984474    11.977084236792899574197691
  209   1   6    -0.134829759900000012429189    40.124555001549950361550145     8.174955255343336446571811     8.174955255343336446571811
  210   1   6    -0.134829759900000012429189    40.124555001549950361550145    28.326994747479570690984474    28.326994747479570690984474
  211   1   6    -0.134829759900000012429189    19.972515509413710788066965     8.174955255343336446571811    28.326994747479570690984474
  212   1   6    -0.134829759900000012429189    19.972515509413710788066965    28.326994747479570690984474     8.174955255343336446571811